15
Coordinates from ORCA-job scan Relaxed Surface Scan Step 1 E -49.854393171497
  C       2.372163     -0.049204     -0.584432
  C       0.926847     -0.339112     -0.409357
  C       0.151775      0.777712     -0.074742
  C      -1.290020      0.514403      0.275123
  C      -2.032867     -0.674042     -0.120503
  O      -1.557932     -0.519351      1.203484
  H       2.805042      0.866284     -0.203889
  H       3.039330     -0.797782     -0.986510
  H       0.564509     -0.817864     -1.326688
  H       0.819810     -1.118766      0.358606
  H       0.149688      1.518294     -0.880535
  H       0.580210      1.300407      0.787048
  H      -1.871308      1.413494      0.460946
  H      -1.547247     -1.455974     -0.692223
  H      -3.110002     -0.618503     -0.233327
>
15
Coordinates from ORCA-job scan Relaxed Surface Scan Step 2 E -49.860158391658
  C       2.381830     -0.055814     -0.583289
  C       0.939929     -0.358831     -0.417706
  C       0.138389      0.794372     -0.072714
  C      -1.298975      0.521090      0.278558
  C      -2.035296     -0.671310     -0.117038
  O      -1.559660     -0.514860      1.206435
  H       2.807558      0.858396     -0.192263
  H       3.055279     -0.795060     -0.992420
  H       0.574884     -0.828264     -1.337506
  H       0.823605     -1.132971      0.353097
  H       0.140161      1.526173     -0.885140
  H       0.576137      1.311860      0.786194
  H      -1.885555      1.416667      0.465716
  H      -1.545394     -1.449194     -0.690521
  H      -3.112892     -0.622253     -0.228401
>
15
Coordinates from ORCA-job scan Relaxed Surface Scan Step 3 E -49.862800494988
  C       2.391344     -0.060187     -0.579976
  C       0.952334     -0.376141     -0.429988
  C       0.121882      0.814888     -0.085339
  C      -1.308341      0.530382      0.277555
  C      -2.035950     -0.671340     -0.105720
  O      -1.554072     -0.501551      1.213875
  H       2.826310      0.793030     -0.076914
  H       3.060880     -0.755866     -1.065129
  H       0.590492     -0.843510     -1.350002
  H       0.823678     -1.137680      0.350834
  H       0.120702      1.528189     -0.912743
  H       0.570336      1.339565      0.762504
  H      -1.903248      1.421165      0.462166
  H      -1.541750     -1.447852     -0.677302
  H      -3.114598     -0.633094     -0.210820
>
15
Coordinates from ORCA-job scan Relaxed Surface Scan Step 4 E -49.862965369859
  C       2.401080     -0.065928     -0.575258
  C       0.965456     -0.394761     -0.438904
  C       0.106371      0.833648     -0.092713
  C      -1.318337      0.539407      0.276413
  C      -2.036836     -0.670863     -0.096603
  O      -1.552647     -0.488067      1.220376
  H       2.841233      0.734286      0.004624
  H       3.067239     -0.715507     -1.124837
  H       0.605183     -0.858045     -1.359916
  H       0.824438     -1.144373      0.350466
  H       0.106581      1.532132     -0.931590
  H       0.563928      1.360506      0.747895
  H      -1.920390      1.426480      0.456669
  H      -1.537229     -1.446288     -0.664904
  H      -3.116070     -0.642630     -0.198714
>
15
Coordinates from ORCA-job scan Relaxed Surface Scan Step 5 E -49.861224313053
  C       2.411295     -0.074183     -0.564084
  C       0.979105     -0.415148     -0.443965
  C       0.090752      0.852192     -0.103843
  C      -1.328158      0.549039      0.273665
  C      -2.037532     -0.670308     -0.086622
  O      -1.550676     -0.471967      1.227176
  H       2.862388      0.644582      0.106962
  H       3.066794     -0.641510     -1.209105
  H       0.622567     -0.877237     -1.365200
  H       0.822744     -1.147830      0.357139
  H       0.090873      1.530926     -0.957802
  H       0.556923      1.386796      0.726087
  H      -1.937321      1.432622      0.448242
  H      -1.532457     -1.445485     -0.650377
  H      -3.117298     -0.652486     -0.185272
>
15
Coordinates from ORCA-job scan Relaxed Surface Scan Step 6 E -49.858367604787
  C       2.426682     -0.135253     -0.519292
  C       0.999072     -0.475257     -0.390220
  C       0.087230      0.855191     -0.149675
  C      -1.337126      0.572420      0.219632
  C      -2.034446     -0.675082     -0.058304
  O      -1.574794     -0.371896      1.245211
  H       3.026557      0.060995      0.358747
  H       2.869434      0.062501     -1.485377
  H       0.635935     -0.970457     -1.289971
  H       0.823354     -1.131377      0.462624
  H       0.111789      1.464581     -1.053421
  H       0.546310      1.438876      0.648996
  H      -1.952842      1.464155      0.312902
  H      -1.515074     -1.489005     -0.549542
  H      -3.112082     -0.670391     -0.179308
>
15
Coordinates from ORCA-job scan Relaxed Surface Scan Step 7 E -49.854593040959
  C       2.435036     -0.143991     -0.516367
  C       1.013387     -0.494769     -0.398080
  C       0.073614      0.872159     -0.152305
  C      -1.345298      0.578952      0.222771
  C      -2.035357     -0.672668     -0.054138
  O      -1.572503     -0.368191      1.247921
  H       3.029577      0.046068      0.366578
  H       2.879352      0.072328     -1.477727
  H       0.647639     -0.978899     -1.302012
  H       0.825119     -1.143941      0.456421
  H       0.099264      1.471049     -1.062277
  H       0.542365      1.452136      0.642535
  H      -1.966694      1.466617      0.319710
  H      -1.512017     -1.481612     -0.549317
  H      -3.113485     -0.675240     -0.170710
>
15
Coordinates from ORCA-job scan Relaxed Surface Scan Step 8 E -49.850048086882
  C       2.443312     -0.152484     -0.513110
  C       1.028189     -0.513919     -0.405210
  C       0.059749      0.889208     -0.155507
  C      -1.353482      0.585539      0.225949
  C      -2.036143     -0.670190     -0.050164
  O      -1.569803     -0.364706      1.250402
  H       3.034590      0.026444      0.374251
  H       2.887723      0.084877     -1.469445
  H       0.659507     -0.987024     -1.313123
  H       0.827005     -1.155636      0.451010
  H       0.085955      1.476545     -1.072306
  H       0.537832      1.466603      0.634819
  H      -1.980800      1.468833      0.327029
  H      -1.508918     -1.473984     -0.549553
  H      -3.114718     -0.680108     -0.162041
>
15
Coordinates from ORCA-job scan Relaxed Surface Scan Step 9 E -49.844991829195
  C       2.452131     -0.160047     -0.508386
  C       1.044103     -0.532540     -0.411453
  C       0.045220      0.906073     -0.160852
  C      -1.361546      0.591929      0.229677
  C      -2.037580     -0.667370     -0.046188
  O      -1.565604     -0.362599      1.252524
  H       3.043189     -0.002079      0.382951
  H       2.895259      0.103852     -1.458309
  H       0.672476     -0.994439     -1.323403
  H       0.828743     -1.166270      0.446297
  H       0.070022      1.478813     -1.086311
  H       0.532710      1.484040      0.622527
  H      -1.994816      1.470447      0.337067
  H      -1.507600     -1.465755     -0.551386
  H      -3.116708     -0.684056     -0.151752
>
15
Coordinates from ORCA-job scan Relaxed Surface Scan Step 10 E -49.839645187959
  C       2.459382     -0.169564     -0.505619
  C       1.059205     -0.551751     -0.418633
  C       0.031774      0.922978     -0.163323
  C      -1.369441      0.598384      0.232661
  C      -2.037821     -0.664995     -0.042605
  O      -1.563046     -0.358928      1.254770
  H       3.046021     -0.017266      0.389595
  H       2.902494      0.112102     -1.450493
  H       0.684024     -1.002006     -1.334310
  H       0.831326     -1.177408      0.440966
  H       0.057213      1.485669     -1.094361
  H       0.528147      1.497408      0.616336
  H      -2.008343      1.472693      0.343788
  H      -1.503742     -1.457984     -0.551841
  H      -3.117194     -0.689330     -0.143928
>
15
Coordinates from ORCA-job scan Relaxed Surface Scan Step 11 E -49.834205300415
  C       2.466645     -0.178079     -0.502129
  C       1.075187     -0.570152     -0.426101
  C       0.017905      0.939828     -0.166409
  C      -1.377275      0.604586      0.236157
  C      -2.038201     -0.662680     -0.038943
  O      -1.559583     -0.356268      1.256919
  H       3.048951     -0.032525      0.396983
  H       2.911755      0.117035     -1.441937
  H       0.695688     -1.007011     -1.345874
  H       0.832679     -1.187183      0.434968
  H       0.043363      1.491500     -1.103520
  H       0.523343      1.511253      0.608957
  H      -2.022062      1.474224      0.352248
  H      -1.500566     -1.450131     -0.553007
  H      -3.117830     -0.694397     -0.135312
>
15
Coordinates from ORCA-job scan Relaxed Surface Scan Step 12 E -49.828872874709
  C       2.473287     -0.186856     -0.498364
  C       1.091656     -0.588279     -0.433601
  C       0.004132      0.956690     -0.169688
  C      -1.384729      0.610505      0.239938
  C      -2.038288     -0.660454     -0.035597
  O      -1.555142     -0.354606      1.258697
  H       3.050580     -0.046083      0.404711
  H       2.921461      0.118903     -1.433313
  H       0.706977     -1.010535     -1.357420
  H       0.833136     -1.195325      0.429180
  H       0.029217      1.497094     -1.112900
  H       0.518753      1.525229      0.601120
  H      -2.035457      1.475204      0.362032
  H      -1.497440     -1.441934     -0.555357
  H      -3.118144     -0.699554     -0.126436
>
15
Coordinates from ORCA-job scan Relaxed Surface Scan Step 13 E -49.823849350712
  C       2.479624     -0.195621     -0.493416
  C       1.108878     -0.605449     -0.441569
  C      -0.010009      0.973801     -0.174029
  C      -1.391605      0.615928      0.244614
  C      -2.037979     -0.658425     -0.032339
  O      -1.548537     -0.354999      1.260129
  H       3.051028     -0.059147      0.414035
  H       2.933875      0.116029     -1.423461
  H       0.717829     -1.010439     -1.369784
  H       0.830756     -1.200558      0.422701
  H       0.013360      1.501417     -1.124054
  H       0.514192      1.540641      0.590923
  H      -2.048581      1.474975      0.375074
  H      -1.494739     -1.433278     -0.559540
  H      -3.118095     -0.704876     -0.116282
>
15
Coordinates from ORCA-job scan Relaxed Surface Scan Step 14 E -49.819252090195
  C       2.484397     -0.205088     -0.489296
  C       1.126528     -0.622811     -0.448697
  C      -0.023547      0.990817     -0.177533
  C      -1.397954      0.621030      0.248886
  C      -2.036840     -0.656733     -0.029967
  O      -1.541762     -0.355774      1.260882
  H       3.050193     -0.070427      0.421984
  H       2.943947      0.111130     -1.415242
  H       0.726824     -1.009079     -1.380440
  H       0.827868     -1.202303      0.418526
  H      -0.000763      1.505875     -1.133919
  H       0.510353      1.554503      0.582294
  H      -2.061179      1.474323      0.387578
  H      -1.490995     -1.424711     -0.564505
  H      -3.117071     -0.710752     -0.107549
