15
Coordinates from ORCA-job scan Relaxed Surface Scan Step 1 E -49.856908306952
  C       2.430256     -0.140104     -0.517632
  C       1.004968     -0.484183     -0.392738
  C       0.081926      0.862038     -0.151531
  C      -1.340009      0.575770      0.221671
  C      -2.035519     -0.672484     -0.057081
  O      -1.573312     -0.370833      1.245939
  H       3.031029      0.042755      0.362619
  H       2.870428      0.076223     -1.480941
  H       0.640463     -0.974874     -1.294197
  H       0.823727     -1.137338      0.460655
  H       0.106142      1.465241     -1.059131
  H       0.545744      1.445517      0.644146
  H      -1.957148      1.466300      0.318016
  H      -1.515254     -1.484025     -0.551302
  H      -3.113442     -0.670004     -0.175493
>
15
Coordinates from ORCA-job scan Relaxed Surface Scan Step 2 E -49.851242710720
  C       2.441216     -0.151792     -0.514245
  C       1.024240     -0.509858     -0.403250
  C       0.063798      0.884762     -0.154353
  C      -1.351080      0.584518      0.225403
  C      -2.036508     -0.669532     -0.051537
  O      -1.570881     -0.365234      1.249580
  H       3.035362      0.023715      0.371893
  H       2.883399      0.087014     -1.471275
  H       0.655860     -0.985396     -1.310213
  H       0.826459     -1.153678      0.452355
  H       0.090149      1.475086     -1.069399
  H       0.539862      1.462551      0.637096
  H      -1.976150      1.469421      0.325797
  H      -1.510754     -1.474739     -0.550198
  H      -3.114973     -0.676837     -0.164653
>
15
Coordinates from ORCA-job scan Relaxed Surface Scan Step 3 E -49.844555152457
  C       2.452633     -0.162126     -0.508769
  C       1.044957     -0.534607     -0.412786
  C       0.044724      0.907405     -0.159929
  C      -1.361975      0.593105      0.230238
  C      -2.038006     -0.666080     -0.046086
  O      -1.566054     -0.361768      1.252732
  H       3.043414     -0.005406      0.382972
  H       2.895900      0.103471     -1.458167
  H       0.672667     -0.994433     -1.325473
  H       0.828456     -1.168521      0.444473
  H       0.070377      1.480732     -1.084955
  H       0.533177      1.483485      0.624168
  H      -1.995164      1.471685      0.337916
  H      -1.507985     -1.464213     -0.551639
  H      -3.117123     -0.682729     -0.151691
>
15
Coordinates from ORCA-job scan Relaxed Surface Scan Step 4 E -49.837377503523
  C       2.462207     -0.174509     -0.505044
  C       1.065351     -0.560003     -0.422278
  C       0.026745      0.929961     -0.163205
  C      -1.372432      0.601581      0.234401
  C      -2.038322     -0.662935     -0.041511
  O      -1.562416     -0.357415      1.255562
  H       3.047153     -0.024997      0.391731
  H       2.905949      0.112903     -1.447888
  H       0.687840     -1.003879     -1.339840
  H       0.831577     -1.182674      0.437592
  H       0.053177      1.489664     -1.095800
  H       0.527140      1.501312      0.615866
  H      -2.013222      1.474387      0.347530
  H      -1.502972     -1.453734     -0.552791
  H      -3.117778     -0.689664     -0.141323
>
15
Coordinates from ORCA-job scan Relaxed Surface Scan Step 5 E -49.830184725043
  C       2.472069     -0.185407     -0.499115
  C       1.087395     -0.583708     -0.432649
  C       0.007772      0.952543     -0.168556
  C      -1.382593      0.609498      0.239921
  C      -2.038978     -0.659828     -0.036563
  O      -1.555973     -0.355659      1.258183
  H       3.050870     -0.046068      0.403193
  H       2.920838      0.116820     -1.434883
  H       0.703798     -1.008073     -1.356118
  H       0.831646     -1.194251      0.428672
  H       0.032711      1.495997     -1.110123
  H       0.520536      1.521485      0.603338
  H      -2.031425      1.475526      0.361943
  H      -1.499800     -1.442715     -0.556013
  H      -3.118867     -0.696163     -0.128229
>
15
Coordinates from ORCA-job scan Relaxed Surface Scan Step 6 E -49.823449257649
  C       2.479852     -0.197612     -0.493858
  C       1.109906     -0.607446     -0.442618
  C      -0.010435      0.975183     -0.173028
  C      -1.391878      0.616952      0.245319
  C      -2.038307     -0.657165     -0.032597
  O      -1.548708     -0.354796      1.260051
  H       3.051299     -0.062388      0.413753
  H       2.934153      0.115109     -1.423519
  H       0.717587     -1.010063     -1.371261
  H       0.830324     -1.201883      0.421588
  H       0.013702      1.503062     -1.122838
  H       0.514871      1.540169      0.592479
  H      -2.048823      1.475941      0.376542
  H      -1.495112     -1.431533     -0.560557
  H      -3.118433     -0.703532     -0.116453
>
15
Coordinates from ORCA-job scan Relaxed Surface Scan Step 7 E -49.817472151300
  C       2.486134     -0.210474     -0.488264
  C       1.133838     -0.630251     -0.452102
  C      -0.028497      0.997945     -0.177787
  C      -1.400141      0.623535      0.251168
  C      -2.036606     -0.655088     -0.029589
  O      -1.539179     -0.356498      1.260872
  H       3.050121     -0.077460      0.424406
  H       2.948214      0.107003     -1.412541
  H       0.728979     -1.006678     -1.385303
  H       0.825439     -1.202468      0.416192
  H      -0.005225      1.508639     -1.136267
  H       0.509645      1.558986      0.580679
  H      -2.065656      1.474517      0.393931
  H      -1.490185     -1.420193     -0.567661
  H      -3.116883     -0.711516     -0.104733
>
15
Coordinates from ORCA-job scan Relaxed Surface Scan Step 8 E -49.812494702215
  C       2.489883     -0.223432     -0.485995
  C       1.158862     -0.653406     -0.458498
  C      -0.045270      1.020412     -0.179213
  C      -1.408098      0.629473      0.255652
  C      -2.033477     -0.654014     -0.028964
  O      -1.531904     -0.358239      1.260365
  H       3.050404     -0.090351      0.428969
  H       2.956864      0.095015     -1.407637
  H       0.734181     -1.000137     -1.393232
  H       0.820674     -1.194041      0.417693
  H      -0.018178      1.514620     -1.145310
  H       0.505310      1.573021      0.575269
  H      -2.083128      1.471893      0.407489
  H      -1.482583     -1.410207     -0.575052
  H      -3.113542     -0.720609     -0.098535
>
15
Coordinates from ORCA-job scan Relaxed Surface Scan Step 9 E -49.808949894718
  C       2.495938     -0.238917     -0.481765
  C       1.185685     -0.672047     -0.464650
  C      -0.065126      1.044233     -0.182986
  C      -1.416552      0.634227      0.261839
  C      -2.030542     -0.653750     -0.028918
  O      -1.520395     -0.364983      1.258517
  H       3.052474     -0.108327      0.436257
  H       2.972686      0.073129     -1.400848
  H       0.738795     -0.982403     -1.400987
  H       0.810404     -1.172606      0.419365
  H      -0.035462      1.516238     -1.159417
  H       0.501070      1.589517      0.564274
  H      -2.101585      1.466084      0.428947
  H      -1.476974     -1.398934     -0.587354
  H      -3.110418     -0.731464     -0.089271
>
15
Coordinates from ORCA-job scan Relaxed Surface Scan Step 10 E -49.806968493734
  C       2.503965     -0.253030     -0.480914
  C       1.212601     -0.691190     -0.469895
  C      -0.085826      1.066337     -0.183326
  C      -1.427983      0.640003      0.266373
  C      -2.029596     -0.653253     -0.028635
  O      -1.515470     -0.367098      1.257594
  H       3.059363     -0.124651      0.438406
  H       2.987570      0.052872     -1.398746
  H       0.743342     -0.965178     -1.405871
  H       0.805868     -1.150393      0.421880
  H      -0.047707      1.517173     -1.168526
  H       0.496892      1.597414      0.560169
  H      -2.122877      1.462097      0.443038
  H      -1.471261     -1.388964     -0.594892
  H      -3.108882     -0.742141     -0.083654
>
15
Coordinates from ORCA-job scan Relaxed Surface Scan Step 11 E -49.806293695922
  C       2.515474     -0.268015     -0.481283
  C       1.238122     -0.708553     -0.475042
  C      -0.109035      1.089104     -0.182529
  C      -1.442333      0.647040      0.270889
  C      -2.029767     -0.652262     -0.027790
  O      -1.513556     -0.366616      1.257475
  H       3.070287     -0.142432      0.439068
  H       3.005380      0.031471     -1.398171
  H       0.750443     -0.949270     -1.410224
  H       0.805240     -1.129801      0.422611
  H      -0.060830      1.518808     -1.175790
  H       0.491032      1.603119      0.557880
  H      -2.147337      1.459126      0.455177
  H      -1.464984     -1.378068     -0.600463
  H      -3.108137     -0.753651     -0.078804
>
15
Coordinates from ORCA-job scan Relaxed Surface Scan Step 12 E -49.806522071168
  C       2.531595     -0.285276     -0.481890
  C       1.262782     -0.722383     -0.480511
  C      -0.135460      1.113455     -0.181863
  C      -1.459507      0.654975      0.275969
  C      -2.031100     -0.650936     -0.026326
  O      -1.512750     -0.365006      1.257810
  H       3.085437     -0.163770      0.439851
  H       3.028730      0.006297     -1.397696
  H       0.761176     -0.933449     -1.415272
  H       0.807083     -1.109359      0.420972
  H      -0.077844      1.522118     -1.182714
  H       0.482347      1.609454      0.555193
  H      -2.175047      1.456175      0.467961
  H      -1.459198     -1.365915     -0.605592
  H      -3.108244     -0.766381     -0.072891
>
15
Coordinates from ORCA-job scan Relaxed Surface Scan Step 13 E -49.807292035858
  C       2.551504     -0.301636     -0.480375
  C       1.287916     -0.734845     -0.487710
  C      -0.164520      1.136775     -0.184042
  C      -1.478173      0.663704      0.282451
  C      -2.036045     -0.647509     -0.023588
  O      -1.510672     -0.363820      1.258037
  H       3.100523     -0.182751      0.444807
  H       3.058340     -0.017286     -1.393329
  H       0.780860     -0.923793     -1.424231
  H       0.811672     -1.094303      0.414384
  H      -0.101011      1.524497     -1.192177
  H       0.473331      1.613611      0.547599
  H      -2.202102      1.454508      0.486199
  H      -1.459654     -1.350716     -0.612889
  H      -3.111970     -0.776437     -0.062134
>
15
Coordinates from ORCA-job scan Relaxed Surface Scan Step 14 E -49.808340335973
  C       2.571495     -0.316466     -0.480966
  C       1.311976     -0.748444     -0.492890
  C      -0.192677      1.160176     -0.183555
  C      -1.497863      0.673338      0.288686
  C      -2.041458     -0.643038     -0.022055
  O      -1.512394     -0.360953      1.258124
  H       3.118000     -0.198479      0.445973
  H       3.084047     -0.038214     -1.392757
  H       0.800379     -0.921471     -1.430111
  H       0.821899     -1.085692      0.410337
  H      -0.121279      1.526913     -1.198447
  H       0.462945      1.618178      0.543592
  H      -2.229944      1.453969      0.502025
  H      -1.459240     -1.334641     -0.619429
  H      -3.115887     -0.785178     -0.055524
